144
Lattice="17.182694782833096 0.0 0.0 0.0 17.182694782833096 0.0 0.0 0.0 26.074999999999996" Properties=species:S:1:pos:R:3:tags:I:1:forces:R:3:energies:R:1 energy=22.579615152991114 free_energy=22.579615152991114 pbc="T T F"
Ag       1.43189123       1.43189123      10.00455494        4       0.00000000       0.00000000       0.00894308       0.30040335
Ag       4.29567370       1.43189123      10.00455494        4       0.00000000      -0.00000000       0.00894308       0.30040335
Ag       7.15945616       1.43189123      10.00455494        4      -0.00000000       0.00000000       0.00894308       0.30040335
Ag      10.02323862       1.43189123      10.00455494        4      -0.00000000       0.00000000       0.00894308       0.30040335
Ag      12.88702109       1.43189123      10.00455494        4       0.00000000      -0.00000000       0.00894308       0.30040335
Ag      15.75080355       1.43189123      10.00455494        4      -0.00000000      -0.00000000       0.00894308       0.30040335
Ag       1.43189123       4.29567370      10.00455494        4      -0.00000000       0.00000000       0.00894308       0.30040335
Ag       4.29567370       4.29567370      10.00455494        4      -0.00000000      -0.00000000       0.00894308       0.30040335
Ag       7.15945616       4.29567370      10.00455494        4      -0.00000000       0.00000000       0.00894308       0.30040335
Ag      10.02323862       4.29567370      10.00455494        4      -0.00000000      -0.00000000       0.00894308       0.30040335
Ag      12.88702109       4.29567370      10.00455494        4      -0.00000000      -0.00000000       0.00894308       0.30040335
Ag      15.75080355       4.29567370      10.00455494        4      -0.00000000       0.00000000       0.00894308       0.30040335
Ag       1.43189123       7.15945616      10.00455494        4       0.00000000       0.00000000       0.00894308       0.30040335
Ag       4.29567370       7.15945616      10.00455494        4      -0.00000000      -0.00000000       0.00894308       0.30040335
Ag       7.15945616       7.15945616      10.00455494        4      -0.00000000      -0.00000000       0.00894308       0.30040335
Ag      10.02323862       7.15945616      10.00455494        4      -0.00000000       0.00000000       0.00894308       0.30040335
Ag      12.88702109       7.15945616      10.00455494        4      -0.00000000       0.00000000       0.00894308       0.30040335
Ag      15.75080355       7.15945616      10.00455494        4      -0.00000000       0.00000000       0.00894308       0.30040335
Ag       1.43189123      10.02323862      10.00455494        4      -0.00000000      -0.00000000       0.00894308       0.30040335
Ag       4.29567370      10.02323862      10.00455494        4       0.00000000       0.00000000       0.00894308       0.30040335
Ag       7.15945616      10.02323862      10.00455494        4       0.00000000      -0.00000000       0.00894308       0.30040335
Ag      10.02323862      10.02323862      10.00455494        4      -0.00000000      -0.00000000       0.00894308       0.30040335
Ag      12.88702109      10.02323862      10.00455494        4       0.00000000      -0.00000000       0.00894308       0.30040335
Ag      15.75080355      10.02323862      10.00455494        4      -0.00000000       0.00000000       0.00894308       0.30040335
Ag       1.43189123      12.88702109      10.00455494        4      -0.00000000       0.00000000       0.00894308       0.30040335
Ag       4.29567370      12.88702109      10.00455494        4       0.00000000       0.00000000       0.00894308       0.30040335
Ag       7.15945616      12.88702109      10.00455494        4      -0.00000000       0.00000000       0.00894308       0.30040335
Ag      10.02323862      12.88702109      10.00455494        4       0.00000000      -0.00000000       0.00894308       0.30040335
Ag      12.88702109      12.88702109      10.00455494        4      -0.00000000       0.00000000       0.00894308       0.30040335
Ag      15.75080355      12.88702109      10.00455494        4      -0.00000000       0.00000000       0.00894308       0.30040335
Ag       1.43189123      15.75080355      10.00455494        4      -0.00000000       0.00000000       0.00894308       0.30040335
Ag       4.29567370      15.75080355      10.00455494        4       0.00000000       0.00000000       0.00894308       0.30040335
Ag       7.15945616      15.75080355      10.00455494        4      -0.00000000       0.00000000       0.00894308       0.30040335
Ag      10.02323862      15.75080355      10.00455494        4      -0.00000000       0.00000000       0.00894308       0.30040335
Ag      12.88702109      15.75080355      10.00455494        4      -0.00000000       0.00000000       0.00894308       0.30040335
Ag      15.75080355      15.75080355      10.00455494        4       0.00000000      -0.00000000       0.00894308       0.30040335
Ag      -0.00000000      -0.00000000      12.01654970        3      -0.00000000      -0.00000000      -0.00716681       0.01320241
Ag       2.86378246      -0.00000000      12.01654970        3       0.00000000      -0.00000000      -0.00716681       0.01320241
Ag       5.72756493      -0.00000000      12.01654970        3      -0.00000000      -0.00000000      -0.00716681       0.01320241
Ag       8.59134739      -0.00000000      12.01654970        3       0.00000000      -0.00000000      -0.00716681       0.01320241
Ag      11.45512986      -0.00000000      12.01654970        3       0.00000000      -0.00000000      -0.00716681       0.01320241
Ag      14.31891232      -0.00000000      12.01654970        3       0.00000000       0.00000000      -0.00716681       0.01320241
Ag      -0.00000000       2.86378246      12.01654970        3      -0.00000000      -0.00000000      -0.00716681       0.01320241
Ag       2.86378246       2.86378246      12.01654970        3       0.00000000      -0.00000000      -0.00716681       0.01320241
Ag       5.72756493       2.86378246      12.01654970        3       0.00000000      -0.00000000      -0.00716681       0.01320241
Ag       8.59134739       2.86378246      12.01654970        3       0.00000000       0.00000000      -0.00716681       0.01320241
Ag      11.45512986       2.86378246      12.01654970        3       0.00000000       0.00000000      -0.00716681       0.01320241
Ag      14.31891232       2.86378246      12.01654970        3      -0.00000000      -0.00000000      -0.00716681       0.01320241
Ag      -0.00000000       5.72756493      12.01654970        3      -0.00000000       0.00000000      -0.00716681       0.01320241
Ag       2.86378246       5.72756493      12.01654970        3      -0.00000000      -0.00000000      -0.00716681       0.01320241
Ag       5.72756493       5.72756493      12.01654970        3       0.00000000       0.00000000      -0.00716681       0.01320241
Ag       8.59134739       5.72756493      12.01654970        3       0.00000000       0.00000000      -0.00716681       0.01320241
Ag      11.45512986       5.72756493      12.01654970        3       0.00000000      -0.00000000      -0.00716681       0.01320241
Ag      14.31891232       5.72756493      12.01654970        3       0.00000000       0.00000000      -0.00716681       0.01320241
Ag      -0.00000000       8.59134739      12.01654970        3      -0.00000000       0.00000000      -0.00716681       0.01320241
Ag       2.86378246       8.59134739      12.01654970        3       0.00000000       0.00000000      -0.00716681       0.01320241
Ag       5.72756493       8.59134739      12.01654970        3       0.00000000       0.00000000      -0.00716681       0.01320241
Ag       8.59134739       8.59134739      12.01654970        3       0.00000000      -0.00000000      -0.00716681       0.01320241
Ag      11.45512986       8.59134739      12.01654970        3       0.00000000       0.00000000      -0.00716681       0.01320241
Ag      14.31891232       8.59134739      12.01654970        3       0.00000000      -0.00000000      -0.00716681       0.01320241
Ag      -0.00000000      11.45512986      12.01654970        3      -0.00000000      -0.00000000      -0.00716681       0.01320241
Ag       2.86378246      11.45512986      12.01654970        3       0.00000000      -0.00000000      -0.00716681       0.01320241
Ag       5.72756493      11.45512986      12.01654970        3      -0.00000000      -0.00000000      -0.00716681       0.01320241
Ag       8.59134739      11.45512986      12.01654970        3      -0.00000000      -0.00000000      -0.00716681       0.01320241
Ag      11.45512986      11.45512986      12.01654970        3      -0.00000000       0.00000000      -0.00716681       0.01320241
Ag      14.31891232      11.45512986      12.01654970        3      -0.00000000      -0.00000000      -0.00716681       0.01320241
Ag      -0.00000000      14.31891232      12.01654970        3      -0.00000000       0.00000000      -0.00716681       0.01320241
Ag       2.86378246      14.31891232      12.01654970        3      -0.00000000       0.00000000      -0.00716681       0.01320241
Ag       5.72756493      14.31891232      12.01654970        3      -0.00000000       0.00000000      -0.00716681       0.01320241
Ag       8.59134739      14.31891232      12.01654970        3      -0.00000000       0.00000000      -0.00716681       0.01320241
Ag      11.45512986      14.31891232      12.01654970        3       0.00000000       0.00000000      -0.00716681       0.01320241
Ag      14.31891232      14.31891232      12.01654970        3      -0.00000000      -0.00000000      -0.00716681       0.01320241
Ag       1.43189123       1.43189123      14.05845030        2       0.00000000       0.00000000       0.00716681       0.01320241
Ag       4.29567370       1.43189123      14.05845030        2      -0.00000000      -0.00000000       0.00716681       0.01320241
Ag       7.15945616       1.43189123      14.05845030        2       0.00000000      -0.00000000       0.00716681       0.01320241
Ag      10.02323862       1.43189123      14.05845030        2       0.00000000      -0.00000000       0.00716681       0.01320241
Ag      12.88702109       1.43189123      14.05845030        2      -0.00000000      -0.00000000       0.00716681       0.01320241
Ag      15.75080355       1.43189123      14.05845030        2       0.00000000      -0.00000000       0.00716681       0.01320241
Ag       1.43189123       4.29567370      14.05845030        2      -0.00000000      -0.00000000       0.00716681       0.01320241
Ag       4.29567370       4.29567370      14.05845030        2       0.00000000      -0.00000000       0.00716681       0.01320241
Ag       7.15945616       4.29567370      14.05845030        2       0.00000000      -0.00000000       0.00716681       0.01320241
Ag      10.02323862       4.29567370      14.05845030        2       0.00000000      -0.00000000       0.00716681       0.01320241
Ag      12.88702109       4.29567370      14.05845030        2      -0.00000000      -0.00000000       0.00716681       0.01320241
Ag      15.75080355       4.29567370      14.05845030        2       0.00000000       0.00000000       0.00716681       0.01320241
Ag       1.43189123       7.15945616      14.05845030        2      -0.00000000       0.00000000       0.00716681       0.01320241
Ag       4.29567370       7.15945616      14.05845030        2       0.00000000       0.00000000       0.00716681       0.01320241
Ag       7.15945616       7.15945616      14.05845030        2       0.00000000       0.00000000       0.00716681       0.01320241
Ag      10.02323862       7.15945616      14.05845030        2       0.00000000      -0.00000000       0.00716681       0.01320241
Ag      12.88702109       7.15945616      14.05845030        2      -0.00000000       0.00000000       0.00716681       0.01320241
Ag      15.75080355       7.15945616      14.05845030        2      -0.00000000       0.00000000       0.00716681       0.01320241
Ag       1.43189123      10.02323862      14.05845030        2      -0.00000000       0.00000000       0.00716681       0.01320241
Ag       4.29567370      10.02323862      14.05845030        2       0.00000000       0.00000000       0.00716681       0.01320241
Ag       7.15945616      10.02323862      14.05845030        2      -0.00000000       0.00000000       0.00716681       0.01320241
Ag      10.02323862      10.02323862      14.05845030        2      -0.00000000       0.00000000       0.00716681       0.01320241
Ag      12.88702109      10.02323862      14.05845030        2      -0.00000000       0.00000000       0.00716681       0.01320241
Ag      15.75080355      10.02323862      14.05845030        2      -0.00000000       0.00000000       0.00716681       0.01320241
Ag       1.43189123      12.88702109      14.05845030        2      -0.00000000      -0.00000000       0.00716681       0.01320241
Ag       4.29567370      12.88702109      14.05845030        2       0.00000000      -0.00000000       0.00716681       0.01320241
Ag       7.15945616      12.88702109      14.05845030        2      -0.00000000      -0.00000000       0.00716681       0.01320241
Ag      10.02323862      12.88702109      14.05845030        2       0.00000000      -0.00000000       0.00716681       0.01320241
Ag      12.88702109      12.88702109      14.05845030        2       0.00000000      -0.00000000       0.00716681       0.01320241
Ag      15.75080355      12.88702109      14.05845030        2       0.00000000      -0.00000000       0.00716681       0.01320241
Ag       1.43189123      15.75080355      14.05845030        2       0.00000000       0.00000000       0.00716681       0.01320241
Ag       4.29567370      15.75080355      14.05845030        2      -0.00000000      -0.00000000       0.00716681       0.01320241
Ag       7.15945616      15.75080355      14.05845030        2       0.00000000       0.00000000       0.00716681       0.01320241
Ag      10.02323862      15.75080355      14.05845030        2       0.00000000      -0.00000000       0.00716681       0.01320241
Ag      12.88702109      15.75080355      14.05845030        2      -0.00000000      -0.00000000       0.00716681       0.01320241
Ag      15.75080355      15.75080355      14.05845030        2      -0.00000000      -0.00000000       0.00716681       0.01320241
Ag      -0.00000000      -0.00000000      16.07044506        1      -0.00000000      -0.00000000      -0.00894308       0.30040335
Ag       2.86378246      -0.00000000      16.07044506        1       0.00000000      -0.00000000      -0.00894308       0.30040335
Ag       5.72756493      -0.00000000      16.07044506        1       0.00000000      -0.00000000      -0.00894308       0.30040335
Ag       8.59134739      -0.00000000      16.07044506        1       0.00000000      -0.00000000      -0.00894308       0.30040335
Ag      11.45512986      -0.00000000      16.07044506        1      -0.00000000      -0.00000000      -0.00894308       0.30040335
Ag      14.31891232      -0.00000000      16.07044506        1       0.00000000      -0.00000000      -0.00894308       0.30040335
Ag      -0.00000000       2.86378246      16.07044506        1       0.00000000       0.00000000      -0.00894308       0.30040335
Ag       2.86378246       2.86378246      16.07044506        1       0.00000000       0.00000000      -0.00894308       0.30040335
Ag       5.72756493       2.86378246      16.07044506        1       0.00000000       0.00000000      -0.00894308       0.30040335
Ag       8.59134739       2.86378246      16.07044506        1      -0.00000000       0.00000000      -0.00894308       0.30040335
Ag      11.45512986       2.86378246      16.07044506        1      -0.00000000       0.00000000      -0.00894308       0.30040335
Ag      14.31891232       2.86378246      16.07044506        1       0.00000000       0.00000000      -0.00894308       0.30040335
Ag      -0.00000000       5.72756493      16.07044506        1       0.00000000       0.00000000      -0.00894308       0.30040335
Ag       2.86378246       5.72756493      16.07044506        1       0.00000000       0.00000000      -0.00894308       0.30040335
Ag       5.72756493       5.72756493      16.07044506        1       0.00000000       0.00000000      -0.00894308       0.30040335
Ag       8.59134739       5.72756493      16.07044506        1      -0.00000000      -0.00000000      -0.00894308       0.30040335
Ag      11.45512986       5.72756493      16.07044506        1       0.00000000       0.00000000      -0.00894308       0.30040335
Ag      14.31891232       5.72756493      16.07044506        1       0.00000000       0.00000000      -0.00894308       0.30040335
Ag      -0.00000000       8.59134739      16.07044506        1      -0.00000000      -0.00000000      -0.00894308       0.30040335
Ag       2.86378246       8.59134739      16.07044506        1      -0.00000000       0.00000000      -0.00894308       0.30040335
Ag       5.72756493       8.59134739      16.07044506        1       0.00000000      -0.00000000      -0.00894308       0.30040335
Ag       8.59134739       8.59134739      16.07044506        1      -0.00000000       0.00000000      -0.00894308       0.30040335
Ag      11.45512986       8.59134739      16.07044506        1       0.00000000      -0.00000000      -0.00894308       0.30040335
Ag      14.31891232       8.59134739      16.07044506        1       0.00000000      -0.00000000      -0.00894308       0.30040335
Ag      -0.00000000      11.45512986      16.07044506        1      -0.00000000      -0.00000000      -0.00894308       0.30040335
Ag       2.86378246      11.45512986      16.07044506        1       0.00000000      -0.00000000      -0.00894308       0.30040335
Ag       5.72756493      11.45512986      16.07044506        1       0.00000000      -0.00000000      -0.00894308       0.30040335
Ag       8.59134739      11.45512986      16.07044506        1      -0.00000000       0.00000000      -0.00894308       0.30040335
Ag      11.45512986      11.45512986      16.07044506        1      -0.00000000       0.00000000      -0.00894308       0.30040335
Ag      14.31891232      11.45512986      16.07044506        1       0.00000000       0.00000000      -0.00894308       0.30040335
Ag      -0.00000000      14.31891232      16.07044506        1      -0.00000000       0.00000000      -0.00894308       0.30040335
Ag       2.86378246      14.31891232      16.07044506        1       0.00000000       0.00000000      -0.00894308       0.30040335
Ag       5.72756493      14.31891232      16.07044506        1       0.00000000       0.00000000      -0.00894308       0.30040335
Ag       8.59134739      14.31891232      16.07044506        1      -0.00000000       0.00000000      -0.00894308       0.30040335
Ag      11.45512986      14.31891232      16.07044506        1       0.00000000       0.00000000      -0.00894308       0.30040335
Ag      14.31891232      14.31891232      16.07044506        1       0.00000000       0.00000000      -0.00894308       0.30040335
